<VTKFile type='UnstructuredGrid' version='0.1' byte_order='LittleEndian'>
<!-- flat_test_tree_01 -->
  <UnstructuredGrid>
    <Piece NumberOfPoints='85' NumberOfCells='146'>
      <PointData Scalars='f(x,y) x y'>
        <DataArray Name='f(x,y)' type='Float64' format='ascii' NumberOfComponents='1'>
          -0 -0 -0 -0 -0 -0 -0 -0 -0 -0 -0 -0 -0 -0 -0 -0 -0 -0 -0 -0 -0 -0 -0 -0 -0 -0 -0 -0 -0 -0 -0 -0 -0 -0 -0 -0 -0 -0 -0 -0 -0 -0 -0 -0 -0 0 0 -0 -0 -0 0 -0 -0 -0 -0 -0 -0 -0 -0 -0 -0 -0 0 0 0 0 0 0 0 0 0 0 0 -0 -0 -0 -0 0 -0 -0 -0 -0 0 0 0 
        </DataArray>
        <DataArray Name='x' type='Float64' format='ascii' NumberOfComponents='1'>
          -0.9375 -1 -1 -0.875 -0.875 -0.8125 -0.75 -0.75 -0.9375 -1 -0.875 -0.8125 -0.75 -0.6875 -0.625 -0.625 -0.5625 -0.5 -0.5 -0.6875 -0.625 -0.5625 -0.5 -0.9375 -1 -0.875 -0.8125 -0.75 -0.9375 -1 -0.875 -0.8125 -0.75 -0.6875 -0.625 -0.5625 -0.5 -0.6875 -0.625 -0.5625 -0.5 -0.375 -0.25 -0.25 -0.125 0 0 -0.375 -0.25 -0.125 0 -0.875 -1 -0.75 -0.625 -0.5 -0.875 -1 -0.75 -0.625 -0.5 -0.25 0 0.25 0.5 0.5 0.75 1 1 0.25 0.5 0.75 1 -0.75 -1 -0.5 -0.25 0 -0.75 -1 -0.5 -0.25 0 0.5 1 
        </DataArray>
        <DataArray Name='y' type='Float64' format='ascii' NumberOfComponents='1'>
          -0.9375 -1 -0.875 -1 -0.875 -0.9375 -1 -0.875 -0.8125 -0.75 -0.75 -0.8125 -0.75 -0.9375 -1 -0.875 -0.9375 -1 -0.875 -0.8125 -0.75 -0.8125 -0.75 -0.6875 -0.625 -0.625 -0.6875 -0.625 -0.5625 -0.5 -0.5 -0.5625 -0.5 -0.6875 -0.625 -0.6875 -0.625 -0.5625 -0.5 -0.5625 -0.5 -0.875 -1 -0.75 -0.875 -1 -0.75 -0.625 -0.5 -0.625 -0.5 -0.375 -0.25 -0.25 -0.375 -0.25 -0.125 0 0 -0.125 0 -0.25 0 -0.75 -1 -0.5 -0.75 -1 -0.5 -0.25 0 -0.25 0 0.25 0.5 0.5 0.25 0.5 0.75 1 1 0.75 1 0.5 1 
        </DataArray>
      </PointData>
      <Points>
        <DataArray Name='Points' type='Float64' format='ascii' NumberOfComponents='3'>
          -0.9375 -0.9375 -0
          -1 -1 -0
          -1 -0.875 -0
          -0.875 -1 -0
          -0.875 -0.875 -0
          -0.8125 -0.9375 -0
          -0.75 -1 -0
          -0.75 -0.875 -0
          -0.9375 -0.8125 -0
          -1 -0.75 -0
          -0.875 -0.75 -0
          -0.8125 -0.8125 -0
          -0.75 -0.75 -0
          -0.6875 -0.9375 -0
          -0.625 -1 -0
          -0.625 -0.875 -0
          -0.5625 -0.9375 -0
          -0.5 -1 -0
          -0.5 -0.875 -0
          -0.6875 -0.8125 -0
          -0.625 -0.75 -0
          -0.5625 -0.8125 -0
          -0.5 -0.75 -0
          -0.9375 -0.6875 -0
          -1 -0.625 -0
          -0.875 -0.625 -0
          -0.8125 -0.6875 -0
          -0.75 -0.625 -0
          -0.9375 -0.5625 -0
          -1 -0.5 -0
          -0.875 -0.5 -0
          -0.8125 -0.5625 -0
          -0.75 -0.5 -0
          -0.6875 -0.6875 -0
          -0.625 -0.625 -0
          -0.5625 -0.6875 -0
          -0.5 -0.625 -0
          -0.6875 -0.5625 -0
          -0.625 -0.5 -0
          -0.5625 -0.5625 -0
          -0.5 -0.5 -0
          -0.375 -0.875 -0
          -0.25 -1 -0
          -0.25 -0.75 -0
          -0.125 -0.875 -0
          0 -1 0
          0 -0.75 0
          -0.375 -0.625 -0
          -0.25 -0.5 -0
          -0.125 -0.625 -0
          0 -0.5 0
          -0.875 -0.375 -0
          -1 -0.25 -0
          -0.75 -0.25 -0
          -0.625 -0.375 -0
          -0.5 -0.25 -0
          -0.875 -0.125 -0
          -1 0 -0
          -0.75 0 -0
          -0.625 -0.125 -0
          -0.5 0 -0
          -0.25 -0.25 -0
          0 0 0
          0.25 -0.75 0
          0.5 -1 0
          0.5 -0.5 0
          0.75 -0.75 0
          1 -1 0
          1 -0.5 0
          0.25 -0.25 0
          0.5 0 0
          0.75 -0.25 0
          1 0 0
          -0.75 0.25 -0
          -1 0.5 -0
          -0.5 0.5 -0
          -0.25 0.25 -0
          0 0.5 0
          -0.75 0.75 -0
          -1 1 -0
          -0.5 1 -0
          -0.25 0.75 -0
          0 1 0
          0.5 0.5 0
          1 1 0
        </DataArray>
      </Points>
      <Cells>
        <DataArray type='Int32' Name='connectivity' format='ascii'>
          2 1 0 
          3 4 0 
          1 3 0 
          4 2 0 
          4 3 5 
          6 7 5 
          3 6 5 
          7 4 5 
          9 2 8 
          4 10 8 
          2 4 8 
          10 9 8 
          10 4 11 
          7 12 11 
          4 7 11 
          12 10 11 
          7 6 13 
          14 15 13 
          6 14 13 
          15 7 13 
          15 14 16 
          17 18 16 
          14 17 16 
          18 15 16 
          12 7 19 
          15 20 19 
          7 15 19 
          20 12 19 
          20 15 21 
          18 22 21 
          15 18 21 
          22 20 21 
          24 9 23 
          10 25 23 
          9 10 23 
          25 24 23 
          25 10 26 
          12 27 26 
          10 12 26 
          27 25 26 
          29 24 28 
          25 30 28 
          24 25 28 
          30 29 28 
          30 25 31 
          27 32 31 
          25 27 31 
          32 30 31 
          27 12 33 
          20 34 33 
          12 20 33 
          34 27 33 
          34 20 35 
          22 36 35 
          20 22 35 
          36 34 35 
          32 27 37 
          34 38 37 
          27 34 37 
          38 32 37 
          38 34 39 
          36 40 39 
          34 36 39 
          40 38 39 
          18 17 41 
          22 18 41 
          42 43 41 
          17 42 41 
          43 22 41 
          43 42 44 
          45 46 44 
          42 45 44 
          46 43 44 
          36 22 47 
          40 36 47 
          43 48 47 
          22 43 47 
          48 40 47 
          48 43 49 
          46 50 49 
          43 46 49 
          50 48 49 
          52 29 51 
          32 53 51 
          29 30 51 
          30 32 51 
          53 52 51 
          53 32 54 
          40 55 54 
          32 38 54 
          38 40 54 
          55 53 54 
          57 52 56 
          53 58 56 
          52 53 56 
          58 57 56 
          58 53 59 
          55 60 59 
          53 55 59 
          60 58 59 
          55 40 61 
          60 55 61 
          50 62 61 
          40 48 61 
          48 50 61 
          62 60 61 
          46 45 63 
          50 46 63 
          64 65 63 
          45 64 63 
          65 50 63 
          65 64 66 
          67 68 66 
          64 67 66 
          68 65 66 
          62 50 69 
          65 70 69 
          50 65 69 
          70 62 69 
          70 65 71 
          68 72 71 
          65 68 71 
          72 70 71 
          74 57 73 
          60 75 73 
          57 58 73 
          58 60 73 
          75 74 73 
          75 60 76 
          62 77 76 
          60 62 76 
          77 75 76 
          79 74 78 
          75 80 78 
          74 75 78 
          80 79 78 
          80 75 81 
          77 82 81 
          75 77 81 
          82 80 81 
          77 62 83 
          82 77 83 
          72 84 83 
          62 70 83 
          70 72 83 
          84 82 83 
        </DataArray>
        <DataArray type='Int32' Name='offsets' format='ascii'>
          3 6 9 12 15 18 21 24 27 30 33 36 39 42 45 48 51 54 57 60 63 66 69 72 75 78 81 84 87 90 93 96 99 102 105 108 111 114 117 120 123 126 129 132 135 138 141 144 147 150 153 156 159 162 165 168 171 174 177 180 183 186 189 192 195 198 201 204 207 210 213 216 219 222 225 228 231 234 237 240 243 246 249 252 255 258 261 264 267 270 273 276 279 282 285 288 291 294 297 300 303 306 309 312 315 318 321 324 327 330 333 336 339 342 345 348 351 354 357 360 363 366 369 372 375 378 381 384 387 390 393 396 399 402 405 408 411 414 417 420 423 426 429 432 435 438 
        </DataArray>
        <DataArray type='Int8' Name='types' format='ascii'>
          5 5 5 5 5 5 5 5 5 5 5 5 5 5 5 5 5 5 5 5 5 5 5 5 5 5 5 5 5 5 5 5 5 5 5 5 5 5 5 5 5 5 5 5 5 5 5 5 5 5 5 5 5 5 5 5 5 5 5 5 5 5 5 5 5 5 5 5 5 5 5 5 5 5 5 5 5 5 5 5 5 5 5 5 5 5 5 5 5 5 5 5 5 5 5 5 5 5 5 5 5 5 5 5 5 5 5 5 5 5 5 5 5 5 5 5 5 5 5 5 5 5 5 5 5 5 5 5 5 5 5 5 5 5 5 5 5 5 5 5 5 5 5 5 5 5 
        </DataArray>
      </Cells>
    </Piece>
  </UnstructuredGrid>
</VTKFile>

