<VTKFile type='UnstructuredGrid' version='0.1' byte_order='LittleEndian'>
<!-- nan_solver -->
  <UnstructuredGrid>
    <Piece NumberOfPoints='16' NumberOfCells='18'>
      <PointData Scalars='f(x,y) x y'>
        <DataArray Name='f(x,y)' type='Float64' format='ascii' NumberOfComponents='1'>
          0 0 0 0 0 0 0 0 0 0 0 0 0 0 0 0 
        </DataArray>
        <DataArray Name='x' type='Float64' format='ascii' NumberOfComponents='1'>
          -1 -1 -0.5 0 0 0.5 0.8421052098 0.6666666269 0.8965516686 0.5517241359 -1 -0.5 0 0.3157894611 0.4102563858 0.2068965435 
        </DataArray>
        <DataArray Name='y' type='Float64' format='ascii' NumberOfComponents='1'>
          0 -1 -0.5 -1 0 -0.5 -0.8421052098 -0.3333333731 -1 0 1 0.5 1 0.6842105389 0.4102563858 1 
        </DataArray>
      </PointData>
      <Points>
        <DataArray Name='Points' type='Float64' format='ascii' NumberOfComponents='3'>
          -1 0 0
          -1 -1 0
          -0.5 -0.5 0
          0 -1 0
          0 0 0
          0.5 -0.5 0
          0.8421052098 -0.8421052098 0
          0.6666666269 -0.3333333731 0
          0.8965516686 -1 0
          0.5517241359 0 0
          -1 1 0
          -0.5 0.5 0
          0 1 0
          0.3157894611 0.6842105389 0
          0.4102563858 0.4102563858 0
          0.2068965435 1 0
        </DataArray>
      </Points>
      <Cells>
        <DataArray type='Int32' Name='connectivity' format='ascii'>
          0 1 2 
          3 4 2 
          1 3 2 
          4 0 2 
          4 3 5 
          5 6 7 
          6 5 3 
          3 8 6 
          9 4 5 
          5 7 9 
          10 0 11 
          4 12 11 
          0 4 11 
          12 10 11 
          13 12 4 
          4 14 13 
          4 9 14 
          12 13 15 
        </DataArray>
        <DataArray type='Int32' Name='offsets' format='ascii'>
          3 6 9 12 15 18 21 24 27 30 33 36 39 42 45 48 51 54 
        </DataArray>
        <DataArray type='Int8' Name='types' format='ascii'>
          5 5 5 5 5 5 5 5 5 5 5 5 5 5 5 5 5 5 
        </DataArray>
      </Cells>
    </Piece>
  </UnstructuredGrid>
</VTKFile>

