<VTKFile type='UnstructuredGrid' version='0.1' byte_order='LittleEndian'>
<!-- rect_fix_nan -->
  <UnstructuredGrid>
    <Piece NumberOfPoints='61' NumberOfCells='52'>
      <PointData Scalars='f(x,y) x y' Normals='NORMALS'>
        <DataArray Name='NORMALS' type='Float64' format='ascii' NumberOfComponents='3'>
          -0.675 -0.675 0.2979093822 -0.45 -0.675 0.5847007782 -0.675 -0.45 0.5847007782 -0.45 -0.45 0.771362431 -0.225 -0.9 0.3733296131 -0.225 -0.675 0.7026734661 0 -0.9 0.4358898944 0 -0.675 0.7378177282 -0.225 -0.45 0.8642193009 0 -0.45 0.893028555 -0.9 -0.225 0.3733296131 -0.675 -0.225 0.7026734661 -0.45 -0.225 0.8642193009 -0.9 0 0.4358898944 -0.675 0 0.7378177282 -0.45 0 0.893028555 -0.225 -0.225 0.9480242613 0 -0.225 0.9743587635 -0.225 0 0.9743587635 0 0 1 0.225 -0.9 0.3733296131 0.225 -0.675 0.7026734661 0.45 -0.675 0.5847007782 0.225 -0.45 0.8642193009 0.45 -0.45 0.771362431 0.675 -0.675 0.2979093822 0.675 -0.45 0.5847007782 0.225 -0.225 0.9480242613 0.45 -0.225 0.8642193009 0.225 0 0.9743587635 0.45 0 0.893028555 0.675 -0.225 0.7026734661 0.9 -0.225 0.3733296131 0.675 0 0.7378177282 0.9 0 0.4358898944 -0.9 0.225 0.3733296131 -0.675 0.225 0.7026734661 -0.45 0.225 0.8642193009 -0.675 0.45 0.5847007782 -0.45 0.45 0.771362431 -0.225 0.225 0.9480242613 0 0.225 0.9743587635 -0.225 0.45 0.8642193009 0 0.45 0.893028555 -0.675 0.675 0.2979093822 -0.45 0.675 0.5847007782 -0.225 0.675 0.7026734661 0 0.675 0.7378177282 -0.225 0.9 0.3733296131 0 0.9 0.4358898944 0.225 0.225 0.9480242613 0.45 0.225 0.8642193009 0.225 0.45 0.8642193009 0.45 0.45 0.771362431 0.675 0.225 0.7026734661 0.9 0.225 0.3733296131 0.675 0.45 0.5847007782 0.225 0.675 0.7026734661 0.45 0.675 0.5847007782 0.225 0.9 0.3733296131 0.675 0.675 0.2979093822 
        </DataArray>
        <DataArray Name='f(x,y)' type='Float64' format='ascii' NumberOfComponents='1'>
          0.2979093822 0.5847007782 0.5847007782 0.771362431 0.3733296131 0.7026734661 0.4358898944 0.7378177282 0.8642193009 0.893028555 0.3733296131 0.7026734661 0.8642193009 0.4358898944 0.7378177282 0.893028555 0.9480242613 0.9743587635 0.9743587635 1 0.3733296131 0.7026734661 0.5847007782 0.8642193009 0.771362431 0.2979093822 0.5847007782 0.9480242613 0.8642193009 0.9743587635 0.893028555 0.7026734661 0.3733296131 0.7378177282 0.4358898944 0.3733296131 0.7026734661 0.8642193009 0.5847007782 0.771362431 0.9480242613 0.9743587635 0.8642193009 0.893028555 0.2979093822 0.5847007782 0.7026734661 0.7378177282 0.3733296131 0.4358898944 0.9480242613 0.8642193009 0.8642193009 0.771362431 0.7026734661 0.3733296131 0.5847007782 0.7026734661 0.5847007782 0.3733296131 0.2979093822 
        </DataArray>
        <DataArray Name='x' type='Float64' format='ascii' NumberOfComponents='1'>
          -0.675 -0.45 -0.675 -0.45 -0.225 -0.225 0 0 -0.225 0 -0.9 -0.675 -0.45 -0.9 -0.675 -0.45 -0.225 0 -0.225 0 0.225 0.225 0.45 0.225 0.45 0.675 0.675 0.225 0.45 0.225 0.45 0.675 0.9 0.675 0.9 -0.9 -0.675 -0.45 -0.675 -0.45 -0.225 0 -0.225 0 -0.675 -0.45 -0.225 0 -0.225 0 0.225 0.45 0.225 0.45 0.675 0.9 0.675 0.225 0.45 0.225 0.675 
        </DataArray>
        <DataArray Name='y' type='Float64' format='ascii' NumberOfComponents='1'>
          -0.675 -0.675 -0.45 -0.45 -0.9 -0.675 -0.9 -0.675 -0.45 -0.45 -0.225 -0.225 -0.225 0 0 0 -0.225 -0.225 0 0 -0.9 -0.675 -0.675 -0.45 -0.45 -0.675 -0.45 -0.225 -0.225 0 0 -0.225 -0.225 0 0 0.225 0.225 0.225 0.45 0.45 0.225 0.225 0.45 0.45 0.675 0.675 0.675 0.675 0.9 0.9 0.225 0.225 0.45 0.45 0.225 0.225 0.45 0.675 0.675 0.9 0.675 
        </DataArray>
      </PointData>
      <Points>
        <DataArray Name='Points' type='Float64' format='ascii' NumberOfComponents='3'>
          -0.675 -0.675 0.2979093822
          -0.45 -0.675 0.5847007782
          -0.675 -0.45 0.5847007782
          -0.45 -0.45 0.771362431
          -0.225 -0.9 0.3733296131
          -0.225 -0.675 0.7026734661
          0 -0.9 0.4358898944
          0 -0.675 0.7378177282
          -0.225 -0.45 0.8642193009
          0 -0.45 0.893028555
          -0.9 -0.225 0.3733296131
          -0.675 -0.225 0.7026734661
          -0.45 -0.225 0.8642193009
          -0.9 0 0.4358898944
          -0.675 0 0.7378177282
          -0.45 0 0.893028555
          -0.225 -0.225 0.9480242613
          0 -0.225 0.9743587635
          -0.225 0 0.9743587635
          0 0 1
          0.225 -0.9 0.3733296131
          0.225 -0.675 0.7026734661
          0.45 -0.675 0.5847007782
          0.225 -0.45 0.8642193009
          0.45 -0.45 0.771362431
          0.675 -0.675 0.2979093822
          0.675 -0.45 0.5847007782
          0.225 -0.225 0.9480242613
          0.45 -0.225 0.8642193009
          0.225 0 0.9743587635
          0.45 0 0.893028555
          0.675 -0.225 0.7026734661
          0.9 -0.225 0.3733296131
          0.675 0 0.7378177282
          0.9 0 0.4358898944
          -0.9 0.225 0.3733296131
          -0.675 0.225 0.7026734661
          -0.45 0.225 0.8642193009
          -0.675 0.45 0.5847007782
          -0.45 0.45 0.771362431
          -0.225 0.225 0.9480242613
          0 0.225 0.9743587635
          -0.225 0.45 0.8642193009
          0 0.45 0.893028555
          -0.675 0.675 0.2979093822
          -0.45 0.675 0.5847007782
          -0.225 0.675 0.7026734661
          0 0.675 0.7378177282
          -0.225 0.9 0.3733296131
          0 0.9 0.4358898944
          0.225 0.225 0.9480242613
          0.45 0.225 0.8642193009
          0.225 0.45 0.8642193009
          0.45 0.45 0.771362431
          0.675 0.225 0.7026734661
          0.9 0.225 0.3733296131
          0.675 0.45 0.5847007782
          0.225 0.675 0.7026734661
          0.45 0.675 0.5847007782
          0.225 0.9 0.3733296131
          0.675 0.675 0.2979093822
        </DataArray>
      </Points>
      <Cells>
        <DataArray type='Int32' Name='connectivity' format='ascii'>
          0 1 3 2 
          4 5 1 
          4 6 7 5 
          1 5 8 3 
          5 7 9 8 
          2 11 10 
          2 3 12 11 
          10 11 14 13 
          11 12 15 14 
          3 8 16 12 
          8 9 17 16 
          12 16 18 15 
          16 17 19 18 
          6 20 21 7 
          22 21 20 
          7 21 23 9 
          21 22 24 23 
          22 25 26 24 
          9 23 27 17 
          23 24 28 27 
          17 27 29 19 
          27 28 30 29 
          24 26 31 28 
          32 31 26 
          28 31 33 30 
          31 32 34 33 
          13 14 36 35 
          14 15 37 36 
          35 36 38 
          36 37 39 38 
          15 18 40 37 
          18 19 41 40 
          37 40 42 39 
          40 41 43 42 
          38 39 45 44 
          39 42 46 45 
          42 43 47 46 
          45 46 48 
          46 47 49 48 
          19 29 50 41 
          29 30 51 50 
          41 50 52 43 
          50 51 53 52 
          30 33 54 51 
          33 34 55 54 
          51 54 56 53 
          56 54 55 
          43 52 57 47 
          52 53 58 57 
          47 57 59 49 
          59 57 58 
          53 56 60 58 
        </DataArray>
        <DataArray type='Int32' Name='offsets' format='ascii'>
          4 7 11 15 19 22 26 30 34 38 42 46 50 54 57 61 65 69 73 77 81 85 89 92 96 100 104 108 111 115 119 123 127 131 135 139 143 146 150 154 158 162 166 170 174 178 181 185 189 193 196 200 
        </DataArray>
        <DataArray type='Int8' Name='types' format='ascii'>
          9 5 9 9 9 5 9 9 9 9 9 9 9 9 5 9 9 9 9 9 9 9 9 5 9 9 9 9 5 9 9 9 9 9 9 9 9 5 9 9 9 9 9 9 9 9 5 9 9 9 5 9 
        </DataArray>
      </Cells>
    </Piece>
  </UnstructuredGrid>
</VTKFile>

