<VTKFile type='UnstructuredGrid' version='0.1' byte_order='LittleEndian'>
<!-- rect_fix_dup-rect -->
  <UnstructuredGrid>
    <Piece NumberOfPoints='65' NumberOfCells='64'>
      <PointData Scalars='u v x(u,v) y(u,v) z(u,v)'>
        <DataArray Name='u' type='Float64' format='ascii' NumberOfComponents='1'>
          -1 -0.75 -0.75 -0.5 -0.5 -0.75 -0.5 -0.25 -0.25 0 0 -0.25 0 -0.75 -0.5 -0.75 -0.5 -0.25 0 -0.25 0 0.25 0.25 0.5 0.5 0.25 0.5 0.75 0.75 1 1 0.75 1 0.25 0.5 0.25 0.5 0.75 1 0.75 1 -0.75 -0.5 -0.75 -0.5 -0.25 0 -0.25 0 -0.75 -0.5 -0.25 0 0.25 0.5 0.25 0.5 0.75 1 0.75 1 0.25 0.5 0.75 1 
        </DataArray>
        <DataArray Name='v' type='Float64' format='ascii' NumberOfComponents='1'>
          -1 -1 -0.75 -1 -0.75 -0.5 -0.5 -1 -0.75 -1 -0.75 -0.5 -0.5 -0.25 -0.25 0 0 -0.25 -0.25 0 0 -1 -0.75 -1 -0.75 -0.5 -0.5 -1 -0.75 -1 -0.75 -0.5 -0.5 -0.25 -0.25 0 0 -0.25 -0.25 0 0 0.25 0.25 0.5 0.5 0.25 0.25 0.5 0.5 0.75 0.75 0.75 0.75 0.25 0.25 0.5 0.5 0.25 0.25 0.5 0.5 0.75 0.75 0.75 0.75 
        </DataArray>
        <DataArray Name='x(u,v)' type='Float64' format='ascii' NumberOfComponents='1'>
          0 0.195090322 0.1379496896 0.3826834324 0.2705980501 1.19454424e-17 2.343182814e-17 0.555570233 0.3928474792 0.7071067812 0.5 3.401774187e-17 4.329637285e-17 -0.1379496896 -0.2705980501 -0.195090322 -0.3826834324 -0.3928474792 -0.5 -0.555570233 -0.7071067812 0.8314696123 0.5879378012 0.9238795325 0.6532814824 5.091114851e-17 5.656943728e-17 0.9807852804 0.6935199227 1 0.7071067812 6.005379431e-17 6.123031769e-17 -0.5879378012 -0.6532814824 -0.8314696123 -0.9238795325 -0.6935199227 -0.7071067812 -0.9807852804 -1 -0.1379496896 -0.2705980501 -3.583632719e-17 -7.029548442e-17 -0.3928474792 -0.5 -1.020532256e-16 -1.298891186e-16 0.1379496896 0.2705980501 0.3928474792 0.5 -0.5879378012 -0.6532814824 -1.527334455e-16 -1.697083119e-16 -0.6935199227 -0.7071067812 -1.801613829e-16 -1.836909531e-16 0.5879378012 0.6532814824 0.6935199227 0.7071067812 
        </DataArray>
        <DataArray Name='y(u,v)' type='Float64' format='ascii' NumberOfComponents='1'>
          0 0 0.1379496896 0 0.2705980501 0.195090322 0.3826834324 0 0.3928474792 0 0.5 0.555570233 0.7071067812 0.1379496896 0.2705980501 2.389088479e-17 4.686365628e-17 0.3928474792 0.5 6.803548374e-17 8.659274571e-17 0 0.5879378012 0 0.6532814824 0.8314696123 0.9238795325 0 0.6935199227 0 0.7071067812 0.9807852804 1 0.5879378012 0.6532814824 1.01822297e-16 1.131388746e-16 0.6935199227 0.7071067812 1.201075886e-16 1.224606354e-16 -0.1379496896 -0.2705980501 -0.195090322 -0.3826834324 -0.3928474792 -0.5 -0.555570233 -0.7071067812 -0.1379496896 -0.2705980501 -0.3928474792 -0.5 -0.5879378012 -0.6532814824 -0.8314696123 -0.9238795325 -0.6935199227 -0.7071067812 -0.9807852804 -1 -0.5879378012 -0.6532814824 -0.6935199227 -0.7071067812 
        </DataArray>
        <DataArray Name='z(u,v)' type='Float64' format='ascii' NumberOfComponents='1'>
          1 0.9807852804 0.9807852804 0.9238795325 0.9238795325 0.9807852804 0.9238795325 0.8314696123 0.8314696123 0.7071067812 0.7071067812 0.8314696123 0.7071067812 0.9807852804 0.9238795325 0.9807852804 0.9238795325 0.8314696123 0.7071067812 0.8314696123 0.7071067812 0.555570233 0.555570233 0.3826834324 0.3826834324 0.555570233 0.3826834324 0.195090322 0.195090322 6.123031769e-17 6.123031769e-17 0.195090322 6.123031769e-17 0.555570233 0.3826834324 0.555570233 0.3826834324 0.195090322 6.123031769e-17 0.195090322 6.123031769e-17 0.9807852804 0.9238795325 0.9807852804 0.9238795325 0.8314696123 0.7071067812 0.8314696123 0.7071067812 0.9807852804 0.9238795325 0.8314696123 0.7071067812 0.555570233 0.3826834324 0.555570233 0.3826834324 0.195090322 6.123031769e-17 0.195090322 6.123031769e-17 0.555570233 0.3826834324 0.195090322 6.123031769e-17 
        </DataArray>
      </PointData>
      <Points>
        <DataArray Name='Points' type='Float64' format='ascii' NumberOfComponents='3'>
          0 0 1
          0.195090322 0 0.9807852804
          0.1379496896 0.1379496896 0.9807852804
          0.3826834324 0 0.9238795325
          0.2705980501 0.2705980501 0.9238795325
          1.19454424e-17 0.195090322 0.9807852804
          2.343182814e-17 0.3826834324 0.9238795325
          0.555570233 0 0.8314696123
          0.3928474792 0.3928474792 0.8314696123
          0.7071067812 0 0.7071067812
          0.5 0.5 0.7071067812
          3.401774187e-17 0.555570233 0.8314696123
          4.329637285e-17 0.7071067812 0.7071067812
          -0.1379496896 0.1379496896 0.9807852804
          -0.2705980501 0.2705980501 0.9238795325
          -0.195090322 2.389088479e-17 0.9807852804
          -0.3826834324 4.686365628e-17 0.9238795325
          -0.3928474792 0.3928474792 0.8314696123
          -0.5 0.5 0.7071067812
          -0.555570233 6.803548374e-17 0.8314696123
          -0.7071067812 8.659274571e-17 0.7071067812
          0.8314696123 0 0.555570233
          0.5879378012 0.5879378012 0.555570233
          0.9238795325 0 0.3826834324
          0.6532814824 0.6532814824 0.3826834324
          5.091114851e-17 0.8314696123 0.555570233
          5.656943728e-17 0.9238795325 0.3826834324
          0.9807852804 0 0.195090322
          0.6935199227 0.6935199227 0.195090322
          1 0 6.123031769e-17
          0.7071067812 0.7071067812 6.123031769e-17
          6.005379431e-17 0.9807852804 0.195090322
          6.123031769e-17 1 6.123031769e-17
          -0.5879378012 0.5879378012 0.555570233
          -0.6532814824 0.6532814824 0.3826834324
          -0.8314696123 1.01822297e-16 0.555570233
          -0.9238795325 1.131388746e-16 0.3826834324
          -0.6935199227 0.6935199227 0.195090322
          -0.7071067812 0.7071067812 6.123031769e-17
          -0.9807852804 1.201075886e-16 0.195090322
          -1 1.224606354e-16 6.123031769e-17
          -0.1379496896 -0.1379496896 0.9807852804
          -0.2705980501 -0.2705980501 0.9238795325
          -3.583632719e-17 -0.195090322 0.9807852804
          -7.029548442e-17 -0.3826834324 0.9238795325
          -0.3928474792 -0.3928474792 0.8314696123
          -0.5 -0.5 0.7071067812
          -1.020532256e-16 -0.555570233 0.8314696123
          -1.298891186e-16 -0.7071067812 0.7071067812
          0.1379496896 -0.1379496896 0.9807852804
          0.2705980501 -0.2705980501 0.9238795325
          0.3928474792 -0.3928474792 0.8314696123
          0.5 -0.5 0.7071067812
          -0.5879378012 -0.5879378012 0.555570233
          -0.6532814824 -0.6532814824 0.3826834324
          -1.527334455e-16 -0.8314696123 0.555570233
          -1.697083119e-16 -0.9238795325 0.3826834324
          -0.6935199227 -0.6935199227 0.195090322
          -0.7071067812 -0.7071067812 6.123031769e-17
          -1.801613829e-16 -0.9807852804 0.195090322
          -1.836909531e-16 -1 6.123031769e-17
          0.5879378012 -0.5879378012 0.555570233
          0.6532814824 -0.6532814824 0.3826834324
          0.6935199227 -0.6935199227 0.195090322
          0.7071067812 -0.7071067812 6.123031769e-17
        </DataArray>
      </Points>
      <Cells>
        <DataArray type='Int32' Name='connectivity' format='ascii'>
          0 1 2 
          1 3 4 2 
          0 2 5 
          2 4 6 5 
          3 7 8 4 
          7 9 10 8 
          4 8 11 6 
          8 10 12 11 
          0 5 13 
          5 6 14 13 
          0 13 15 
          13 14 16 15 
          6 11 17 14 
          11 12 18 17 
          14 17 19 16 
          17 18 20 19 
          9 21 22 10 
          21 23 24 22 
          10 22 25 12 
          22 24 26 25 
          23 27 28 24 
          27 29 30 28 
          24 28 31 26 
          28 30 32 31 
          12 25 33 18 
          25 26 34 33 
          18 33 35 20 
          33 34 36 35 
          26 31 37 34 
          31 32 38 37 
          34 37 39 36 
          37 38 40 39 
          0 15 41 
          15 16 42 41 
          0 41 43 
          41 42 44 43 
          16 19 45 42 
          19 20 46 45 
          42 45 47 44 
          45 46 48 47 
          0 43 49 
          43 44 50 49 
          0 49 1 
          49 50 3 1 
          44 47 51 50 
          47 48 52 51 
          50 51 7 3 
          51 52 9 7 
          20 35 53 46 
          35 36 54 53 
          46 53 55 48 
          53 54 56 55 
          36 39 57 54 
          39 40 58 57 
          54 57 59 56 
          57 58 60 59 
          48 55 61 52 
          55 56 62 61 
          52 61 21 9 
          61 62 23 21 
          56 59 63 62 
          59 60 64 63 
          62 63 27 23 
          63 64 29 27 
        </DataArray>
        <DataArray type='Int32' Name='offsets' format='ascii'>
          3 7 10 14 18 22 26 30 33 37 40 44 48 52 56 60 64 68 72 76 80 84 88 92 96 100 104 108 112 116 120 124 127 131 134 138 142 146 150 154 157 161 164 168 172 176 180 184 188 192 196 200 204 208 212 216 220 224 228 232 236 240 244 248 
        </DataArray>
        <DataArray type='Int8' Name='types' format='ascii'>
          5 9 5 9 9 9 9 9 5 9 5 9 9 9 9 9 9 9 9 9 9 9 9 9 9 9 9 9 9 9 9 9 5 9 5 9 9 9 9 9 5 9 5 9 9 9 9 9 9 9 9 9 9 9 9 9 9 9 9 9 9 9 9 9 
        </DataArray>
      </Cells>
    </Piece>
  </UnstructuredGrid>
</VTKFile>

