<VTKFile type='UnstructuredGrid' version='0.1' byte_order='LittleEndian'>
<!-- segment_folder -->
  <UnstructuredGrid>
    <Piece NumberOfPoints='20' NumberOfCells='35'>
      <PointData Scalars='f(x,y) x y'>
        <DataArray Name='f(x,y)' type='Float64' format='ascii' NumberOfComponents='1'>
          2.5 2.5 2.5 2.5 1.6 0.65 0.3 1.3 2.5 2.5 0.6 0.35 2.3 6.198883058e-07 6.675720217e-07 3.337860108e-07 8.583068847e-07 9.536743173e-08 4.768371583e-07 6.675720213e-07 
        </DataArray>
        <DataArray Name='x' type='Float64' format='ascii' NumberOfComponents='1'>
          -1 -1 -0.5 0 0 0.5 1 1 -1 -0.5 0 0.5 1 0.6666665077 0.8421049118 0.896551609 0.5517244339 0.4102563858 0.3157892227 0.2068967819 
        </DataArray>
        <DataArray Name='y' type='Float64' format='ascii' NumberOfComponents='1'>
          0 -1 -0.5 -1 0 -0.5 -1 0 1 0.5 1 0.5 1 -0.3333334923 -0.8421049118 -1 0 0.4102563858 0.6842107773 1 
        </DataArray>
      </PointData>
      <Points>
        <DataArray Name='Points' type='Float64' format='ascii' NumberOfComponents='3'>
          -1 0 2.5
          -1 -1 2.5
          -0.5 -0.5 2.5
          0 -1 2.5
          0 0 1.6
          0.5 -0.5 0.65
          1 -1 0.3
          1 0 1.3
          -1 1 2.5
          -0.5 0.5 2.5
          0 1 0.6
          0.5 0.5 0.35
          1 1 2.3
          0.6666665077 -0.3333334923 6.198883058e-07
          0.8421049118 -0.8421049118 6.675720217e-07
          0.896551609 -1 3.337860108e-07
          0.5517244339 0 8.583068847e-07
          0.4102563858 0.4102563858 9.536743173e-08
          0.3157892227 0.6842107773 4.768371583e-07
          0.2068967819 1 6.675720213e-07
        </DataArray>
      </Points>
      <Cells>
        <DataArray type='Int32' Name='connectivity' format='ascii'>
          0 1 
          1 2 
          2 0 
          3 4 
          4 2 
          2 3 
          1 3 
          4 0 
          3 5 
          5 4 
          6 7 
          7 13 
          5 14 
          3 15 
          7 16 
          8 0 
          0 9 
          9 8 
          4 10 
          10 9 
          9 4 
          10 8 
          4 17 
          11 18 
          7 12 
          12 11 
          11 7 
          12 19 
          13 5 
          14 6 
          15 6 
          16 4 
          17 11 
          18 10 
          19 10 
        </DataArray>
        <DataArray type='Int32' Name='offsets' format='ascii'>
          2 4 6 8 10 12 14 16 18 20 22 24 26 28 30 32 34 36 38 40 42 44 46 48 50 52 54 56 58 60 62 64 66 68 70 
        </DataArray>
        <DataArray type='Int8' Name='types' format='ascii'>
          3 3 3 3 3 3 3 3 3 3 3 3 3 3 3 3 3 3 3 3 3 3 3 3 3 3 3 3 3 3 3 3 3 3 3 
        </DataArray>
      </Cells>
    </Piece>
  </UnstructuredGrid>
</VTKFile>

