<VTKFile type='UnstructuredGrid' version='0.1' byte_order='LittleEndian'>
<!-- triangle_folder -->
  <UnstructuredGrid>
    <Piece NumberOfPoints='20' NumberOfCells='28'>
      <PointData Scalars='f(x,y) x y'>
        <DataArray Name='f(x,y)' type='Float64' format='ascii' NumberOfComponents='1'>
          2.5 2.5 2.5 2.5 1.6 0.65 0.3 1.3 2.5 2.5 0.6 0.35 2.3 6.675720217e-07 6.198883058e-07 3.337860108e-07 8.583068847e-07 4.768371583e-07 9.536743173e-08 6.675720213e-07 
        </DataArray>
        <DataArray Name='x' type='Float64' format='ascii' NumberOfComponents='1'>
          -1 -1 -0.5 0 0 0.5 1 1 -1 -0.5 0 0.5 1 0.8421049118 0.6666665077 0.896551609 0.5517244339 0.3157892227 0.4102563858 0.2068967819 
        </DataArray>
        <DataArray Name='y' type='Float64' format='ascii' NumberOfComponents='1'>
          0 -1 -0.5 -1 0 -0.5 -1 0 1 0.5 1 0.5 1 -0.8421049118 -0.3333334923 -1 0 0.6842107773 0.4102563858 1 
        </DataArray>
      </PointData>
      <Points>
        <DataArray Name='Points' type='Float64' format='ascii' NumberOfComponents='3'>
          -1 0 2.5
          -1 -1 2.5
          -0.5 -0.5 2.5
          0 -1 2.5
          0 0 1.6
          0.5 -0.5 0.65
          1 -1 0.3
          1 0 1.3
          -1 1 2.5
          -0.5 0.5 2.5
          0 1 0.6
          0.5 0.5 0.35
          1 1 2.3
          0.8421049118 -0.8421049118 6.675720217e-07
          0.6666665077 -0.3333334923 6.198883058e-07
          0.896551609 -1 3.337860108e-07
          0.5517244339 0 8.583068847e-07
          0.3157892227 0.6842107773 4.768371583e-07
          0.4102563858 0.4102563858 9.536743173e-08
          0.2068967819 1 6.675720213e-07
        </DataArray>
      </Points>
      <Cells>
        <DataArray type='Int32' Name='connectivity' format='ascii'>
          0 1 2 
          3 4 2 
          1 3 2 
          4 0 2 
          4 3 5 
          13 14 5 
          15 6 13 
          7 16 14 
          8 0 9 
          4 10 9 
          0 4 9 
          10 8 9 
          17 18 11 
          7 12 11 
          4 16 18 
          19 10 17 
          13 6 14 
          6 7 14 
          13 5 15 
          5 3 15 
          16 4 14 
          4 5 14 
          17 10 18 
          10 4 18 
          16 7 18 
          7 11 18 
          17 11 19 
          11 12 19 
        </DataArray>
        <DataArray type='Int32' Name='offsets' format='ascii'>
          3 6 9 12 15 18 21 24 27 30 33 36 39 42 45 48 51 54 57 60 63 66 69 72 75 78 81 84 
        </DataArray>
        <DataArray type='Int8' Name='types' format='ascii'>
          5 5 5 5 5 5 5 5 5 5 5 5 5 5 5 5 5 5 5 5 5 5 5 5 5 5 5 5 
        </DataArray>
      </Cells>
    </Piece>
  </UnstructuredGrid>
</VTKFile>

